LAMMPS file only water

2669 atoms
150 bonds
0 angles
0 dihedrals
0 impropers

4 atom types
2 bond types
0 angle types

-5.000000 5.000000 xlo xhi
-5.000000 5.000000 ylo yhi
-2.500000 2.500000 zlo zhi

Masses

1 1.000000
2 1.000000
3 1.000000
4 1.000000

Atoms

1 1 1 0.000000 -3.806090 1.089580 1.295950
2 1 2 0.000000 -3.806090 1.089580 2.735950
3 1 2 0.000000 -3.456090 1.089580 2.735950
4 1 3 0.000000 -3.456090 1.089580 2.385950
5 2 1 0.000000 2.077620 -1.357930 -1.388065
6 2 2 0.000000 2.077620 -1.357930 0.051935
7 2 2 0.000000 2.427620 -1.357930 0.051935
8 2 3 0.000000 2.427620 -1.357930 -0.298065
9 3 1 0.000000 1.656200 -4.187442 0.833355
10 3 2 0.000000 1.656200 -4.187442 2.273355
11 3 2 0.000000 2.006200 -4.187442 2.273355
12 3 3 0.000000 2.006200 -4.187442 1.923355
13 4 1 0.000000 2.401280 -1.758080 0.983780
14 4 2 0.000000 2.401280 -1.758080 2.423780
15 4 2 0.000000 2.751280 -1.758080 2.423780
16 4 3 0.000000 2.751280 -1.758080 2.073780
17 5 1 0.000000 -1.236450 -1.024540 0.286215
18 5 2 0.000000 -1.236450 -1.024540 1.726215
19 5 2 0.000000 -0.886450 -1.024540 1.726215
20 5 3 0.000000 -0.886450 -1.024540 1.376215
21 6 1 0.000000 0.764490 -1.161460 -0.320845
22 6 2 0.000000 0.764490 -1.161460 1.119155
23 6 2 0.000000 1.114490 -1.161460 1.119155
24 6 3 0.000000 1.114490 -1.161460 0.769155
25 7 1 0.000000 -4.942477 1.783330 1.242700
26 7 2 0.000000 -4.942477 1.783330 2.682700
27 7 2 0.000000 -4.592477 1.783330 2.682700
28 7 3 0.000000 -4.592477 1.783330 2.332700
29 8 1 0.000000 2.177270 3.386870 1.543635
30 8 2 0.000000 2.177270 3.386870 2.983635
31 8 2 0.000000 2.527270 3.386870 2.983635
32 8 3 0.000000 2.527270 3.386870 2.633635
33 9 1 0.000000 -2.240850 -2.014980 2.122045
34 9 2 0.000000 -2.240850 -2.014980 3.562045
35 9 2 0.000000 -1.890850 -2.014980 3.562045
36 9 3 0.000000 -1.890850 -2.014980 3.212045
37 10 1 0.000000 0.337700 -4.298112 0.812590
38 10 2 0.000000 0.337700 -4.298112 2.252590
39 10 2 0.000000 0.687700 -4.298112 2.252590
40 10 3 0.000000 0.687700 -4.298112 1.902590
41 11 1 0.000000 4.442690 -1.689050 1.102090
42 11 2 0.000000 4.442690 -1.689050 2.542090
43 11 2 0.000000 4.792690 -1.689050 2.542090
44 11 3 0.000000 4.792690 -1.689050 2.192090
45 12 1 0.000000 -4.288434 4.291490 -1.434400
46 12 2 0.000000 -4.288434 4.291490 0.005600
47 12 2 0.000000 -3.938434 4.291490 0.005600
48 12 3 0.000000 -3.938434 4.291490 -0.344400
49 13 1 0.000000 4.013530 -4.580368 -1.123420
50 13 2 0.000000 4.013530 -4.580368 0.316580
51 13 2 0.000000 4.363530 -4.580368 0.316580
52 13 3 0.000000 4.363530 -4.580368 -0.033420
53 14 1 0.000000 -2.585780 0.782000 1.523080
54 14 2 0.000000 -2.585780 0.782000 2.963080
55 14 2 0.000000 -2.235780 0.782000 2.963080
56 14 3 0.000000 -2.235780 0.782000 2.613080
57 15 1 0.000000 -3.155860 -0.567370 2.079290
58 15 2 0.000000 -3.155860 -0.567370 3.519290
59 15 2 0.000000 -2.805860 -0.567370 3.519290
60 15 3 0.000000 -2.805860 -0.567370 3.169290
61 16 1 0.000000 3.231440 0.876250 -1.463770
62 16 2 0.000000 3.231440 0.876250 -0.023770
63 16 2 0.000000 3.581440 0.876250 -0.023770
64 16 3 0.000000 3.581440 0.876250 -0.373770
65 17 1 0.000000 -3.094570 -0.440070 1.889185
66 17 2 0.000000 -3.094570 -0.440070 3.329185
67 17 2 0.000000 -2.744570 -0.440070 3.329185
68 17 3 0.000000 -2.744570 -0.440070 2.979185
69 18 1 0.000000 2.980750 -2.510140 1.019245
70 18 2 0.000000 2.980750 -2.510140 2.459245
71 18 2 0.000000 3.330750 -2.510140 2.459245
72 18 3 0.000000 3.330750 -2.510140 2.109245
73 19 1 0.000000 0.872590 -4.326577 1.613390
74 19 2 0.000000 0.872590 -4.326577 3.053390
75 19 2 0.000000 1.222590 -4.326577 3.053390
76 19 3 0.000000 1.222590 -4.326577 2.703390
77 20 1 0.000000 2.466510 4.695910 2.044085
78 20 2 0.000000 2.466510 4.695910 3.484085
79 20 2 0.000000 2.816510 4.695910 3.484085
80 20 3 0.000000 2.816510 4.695910 3.134085
81 21 1 0.000000 -0.170760 -0.032410 -2.330473
82 21 2 0.000000 -0.170760 -0.032410 -0.890473
83 21 2 0.000000 0.179240 -0.032410 -0.890473
84 21 3 0.000000 0.179240 -0.032410 -1.240473
85 22 1 0.000000 3.475170 -2.745810 0.571645
86 22 2 0.000000 3.475170 -2.745810 2.011645
87 22 2 0.000000 3.825170 -2.745810 2.011645
88 22 3 0.000000 3.825170 -2.745810 1.661645
89 23 1 0.000000 -4.655423 -3.696890 -1.781835
90 23 2 0.000000 -4.655423 -3.696890 -0.341835
91 23 2 0.000000 -4.305423 -3.696890 -0.341835
92 23 3 0.000000 -4.305423 -3.696890 -0.691835
93 24 1 0.000000 -4.578576 -2.132690 -2.057660
94 24 2 0.000000 -4.578576 -2.132690 -0.617660
95 24 2 0.000000 -4.228576 -2.132690 -0.617660
96 24 3 0.000000 -4.228576 -2.132690 -0.967660
97 25 1 0.000000 3.828630 -2.149230 -1.017545
98 25 2 0.000000 3.828630 -2.149230 0.422455
99 25 2 0.000000 4.178630 -2.149230 0.422455
100 25 3 0.000000 4.178630 -2.149230 0.072455
101 26 1 0.000000 -3.789400 1.491960 -2.344142
102 26 2 0.000000 -3.789400 1.491960 -0.904142
103 26 2 0.000000 -3.439400 1.491960 -0.904142
104 26 3 0.000000 -3.439400 1.491960 -1.254142
105 27 1 0.000000 4.000700 -0.296390 -0.735425
106 27 2 0.000000 4.000700 -0.296390 0.704575
107 27 2 0.000000 4.350700 -0.296390 0.704575
108 27 3 0.000000 4.350700 -0.296390 0.354575
109 28 1 0.000000 -0.511950 -4.382171 -0.571900
110 28 2 0.000000 -0.511950 -4.382171 0.868100
111 28 2 0.000000 -0.161950 -4.382171 0.868100
112 28 3 0.000000 -0.161950 -4.382171 0.518100
113 29 1 0.000000 -3.900050 1.848400 -1.975170
114 29 2 0.000000 -3.900050 1.848400 -0.535170
115 29 2 0.000000 -3.550050 1.848400 -0.535170
116 29 3 0.000000 -3.550050 1.848400 -0.885170
117 30 1 0.000000 -3.399640 2.299440 -1.654405
118 30 2 0.000000 -3.399640 2.299440 -0.214405
119 30 2 0.000000 -3.049640 2.299440 -0.214405
120 30 3 0.000000 -3.049640 2.299440 -0.564405
121 31 1 0.000000 -1.121290 4.395330 1.188045
122 31 2 0.000000 -1.121290 4.395330 2.628045
123 31 2 0.000000 -0.771290 4.395330 2.628045
124 31 3 0.000000 -0.771290 4.395330 2.278045
125 32 1 0.000000 4.903280 -0.622990 -0.256505
126 32 2 0.000000 4.903280 -0.622990 1.183495
127 32 2 0.000000 5.253280 -0.622990 1.183495
128 32 3 0.000000 5.253280 -0.622990 0.833495
129 33 1 0.000000 -2.078450 -2.551950 -0.325060
130 33 2 0.000000 -2.078450 -2.551950 1.114940
131 33 2 0.000000 -1.728450 -2.551950 1.114940
132 33 3 0.000000 -1.728450 -2.551950 0.764940
133 34 1 0.000000 3.448610 0.721470 -2.102717
134 34 2 0.000000 3.448610 0.721470 -0.662717
135 34 2 0.000000 3.798610 0.721470 -0.662717
136 34 3 0.000000 3.798610 0.721470 -1.012717
137 35 1 0.000000 -0.752730 -1.108770 2.491250
138 35 2 0.000000 -0.752730 -1.108770 3.931250
139 35 2 0.000000 -0.402730 -1.108770 3.931250
140 35 3 0.000000 -0.402730 -1.108770 3.581250
141 36 1 0.000000 0.941390 1.993650 -1.324885
142 36 2 0.000000 0.941390 1.993650 0.115115
143 36 2 0.000000 1.291390 1.993650 0.115115
144 36 3 0.000000 1.291390 1.993650 -0.234885
145 37 1 0.000000 -4.676733 -1.857840 -2.358034
146 37 2 0.000000 -4.676733 -1.857840 -0.918034
147 37 2 0.000000 -4.326733 -1.857840 -0.918034
148 37 3 0.000000 -4.326733 -1.857840 -1.268034
149 38 1 0.000000 -2.956100 -3.233950 -1.498610
150 38 2 0.000000 -2.956100 -3.233950 -0.058610
151 38 2 0.000000 -2.606100 -3.233950 -0.058610
152 38 3 0.000000 -2.606100 -3.233950 -0.408610
153 39 1 0.000000 -4.240606 -1.857110 -1.232215
154 39 2 0.000000 -4.240606 -1.857110 0.207785
155 39 2 0.000000 -3.890606 -1.857110 0.207785
156 39 3 0.000000 -3.890606 -1.857110 -0.142215
157 40 1 0.000000 0.243590 4.005570 0.839400
158 40 2 0.000000 0.243590 4.005570 2.279400
159 40 2 0.000000 0.593590 4.005570 2.279400
160 40 3 0.000000 0.593590 4.005570 1.929400
161 41 1 0.000000 -4.424143 3.421940 1.294565
162 41 2 0.000000 -4.424143 3.421940 2.734565
163 41 2 0.000000 -4.074143 3.421940 2.734565
164 41 3 0.000000 -4.074143 3.421940 2.384565
165 42 1 0.000000 -4.562684 4.978160 -1.010555
166 42 2 0.000000 -4.562684 4.978160 0.429445
167 42 2 0.000000 -4.212684 4.978160 0.429445
168 42 3 0.000000 -4.212684 4.978160 0.079445
169 43 1 0.000000 1.233020 3.393270 0.335445
170 43 2 0.000000 1.233020 3.393270 1.775445
171 43 2 0.000000 1.583020 3.393270 1.775445
172 43 3 0.000000 1.583020 3.393270 1.425445
173 44 1 0.000000 -4.343701 -4.574490 -1.723730
174 44 2 0.000000 -4.343701 -4.574490 -0.283730
175 44 2 0.000000 -3.993701 -4.574490 -0.283730
176 44 3 0.000000 -3.993701 -4.574490 -0.633730
177 45 1 0.000000 -1.386660 4.364910 0.516525
178 45 2 0.000000 -1.386660 4.364910 1.956525
179 45 2 0.000000 -1.036660 4.364910 1.956525
180 45 3 0.000000 -1.036660 4.364910 1.606525
181 46 1 0.000000 2.500180 0.494510 0.579825
182 46 2 0.000000 2.500180 0.494510 2.019825
183 46 2 0.000000 2.850180 0.494510 2.019825
184 46 3 0.000000 2.850180 0.494510 1.669825
185 47 1 0.000000 0.319360 -2.433150 -1.965770
186 47 2 0.000000 0.319360 -2.433150 -0.525770
187 47 2 0.000000 0.669360 -2.433150 -0.525770
188 47 3 0.000000 0.669360 -2.433150 -0.875770
189 48 1 0.000000 2.616470 -4.906556 -2.239597
190 48 2 0.000000 2.616470 -4.906556 -0.799597
191 48 2 0.000000 2.966470 -4.906556 -0.799597
192 48 3 0.000000 2.966470 -4.906556 -1.149597
193 49 1 0.000000 -1.807440 2.359110 -0.196935
194 49 2 0.000000 -1.807440 2.359110 1.243065
195 49 2 0.000000 -1.457440 2.359110 1.243065
196 49 3 0.000000 -1.457440 2.359110 0.893065
197 50 1 0.000000 0.293740 -3.116680 -1.052750
198 50 2 0.000000 0.293740 -3.116680 0.387250
199 50 2 0.000000 0.643740 -3.116680 0.387250
200 50 3 0.000000 0.643740 -3.116680 0.037250
201 51 4 0.000000 -0.387780 0.947740 -0.918285
202 52 4 0.000000 1.921220 4.476350 -1.091795
203 53 4 0.000000 -4.202065 -2.698320 2.163505
204 54 4 0.000000 -0.709520 -3.627750 0.046655
205 55 4 0.000000 -4.079523 2.309400 1.246560
206 56 4 0.000000 2.993510 1.996550 -1.426570
207 57 4 0.000000 -3.903190 -3.877660 -0.840460
208 58 4 0.000000 2.771070 -1.997720 0.686935
209 59 4 0.000000 -3.004290 1.731730 -0.250560
210 60 4 0.000000 -0.427790 -4.110125 0.440445
211 61 4 0.000000 1.922560 -1.486870 2.493030
212 62 4 0.000000 3.219590 -2.710250 -0.727530
213 63 4 0.000000 -0.785200 -4.574011 1.252870
214 64 4 0.000000 0.318170 0.761600 -2.276637
215 65 4 0.000000 -4.866400 0.614260 -1.113505
216 66 4 0.000000 3.519450 0.049640 -0.068745
217 67 4 0.000000 -0.584160 4.476470 -1.407520
218 68 4 0.000000 -0.056950 1.256860 -1.999830
219 69 4 0.000000 -0.171130 2.652170 -2.100482
220 70 4 0.000000 0.875630 0.783960 -1.418950
221 71 4 0.000000 4.001670 -1.643100 -2.463303
222 72 4 0.000000 4.957490 4.300150 -2.386383
223 73 4 0.000000 1.628300 -2.556400 2.357680
224 74 4 0.000000 -3.277420 -0.559690 -1.729830
225 75 4 0.000000 -0.997900 -3.360240 -0.924840
226 76 4 0.000000 -1.117580 -2.326660 1.708640
227 77 4 0.000000 3.635090 -1.627080 -0.710135
228 78 4 0.000000 -2.934200 -2.151130 0.495680
229 79 4 0.000000 2.867520 -0.210990 -0.543675
230 80 4 0.000000 0.950460 0.612970 -0.236795
231 81 4 0.000000 0.473420 0.172280 1.852415
232 82 4 0.000000 -1.926300 2.927890 2.042635
233 83 4 0.000000 1.945290 2.769730 1.228535
234 84 4 0.000000 1.545440 -4.152780 -0.819170
235 85 4 0.000000 -1.837570 -1.432170 -2.417015
236 86 4 0.000000 -2.520800 4.042720 0.635495
237 87 4 0.000000 2.746050 4.139570 2.243760
238 88 4 0.000000 2.843810 4.856380 -2.457500
239 89 4 0.000000 -3.608030 3.675440 -1.653325
240 90 4 0.000000 -1.612650 -0.795310 1.794130
241 91 4 0.000000 -4.527480 4.299150 -2.171151
242 92 4 0.000000 -3.273490 0.931470 -1.125435
243 93 4 0.000000 3.090240 -0.703480 -0.642445
244 94 4 0.000000 4.415730 1.682550 0.321790
245 95 4 0.000000 -2.341520 -3.002560 -2.181143
246 96 4 0.000000 -3.308140 -4.761677 1.417005
247 97 4 0.000000 -4.770029 3.110200 0.202230
248 98 4 0.000000 -0.688480 -1.670970 0.167030
249 99 4 0.000000 -4.083521 -4.293920 0.626340
250 100 4 0.000000 -1.146260 2.674830 2.249095
251 101 4 0.000000 4.630120 -2.581200 2.005465
252 102 4 0.000000 -4.772371 4.907350 -2.490154
253 103 4 0.000000 -4.454081 -1.628980 0.198805
254 104 4 0.000000 1.026810 4.197700 -0.461880
255 105 4 0.000000 -3.088520 3.541800 -2.286844
256 106 4 0.000000 -0.939010 -1.892270 0.312335
257 107 4 0.000000 -4.445888 -2.554370 -1.090230
258 108 4 0.000000 -4.130407 1.043640 2.177500
259 109 4 0.000000 4.882540 -0.853080 2.459020
260 110 4 0.000000 2.893240 -4.325480 0.544745
261 111 4 0.000000 -3.295130 4.718010 0.833080
262 112 4 0.000000 -2.572670 3.504180 0.711280
263 113 4 0.000000 3.260060 0.505400 1.371475
264 114 4 0.000000 -0.228460 1.428870 -1.795370
265 115 4 0.000000 0.082700 3.679290 -2.290734
266 116 4 0.000000 1.870860 3.923910 0.929020
267 117 4 0.000000 2.200290 -4.661947 -1.972470
268 118 4 0.000000 0.535010 4.696000 -0.932965
269 119 4 0.000000 3.754450 1.833490 1.969600
270 120 4 0.000000 4.582300 -1.889170 1.547125
271 121 4 0.000000 -2.579950 0.336220 1.590335
272 122 4 0.000000 1.700020 -3.906950 1.712715
273 123 4 0.000000 -0.362070 -3.248520 2.059530
274 124 4 0.000000 -1.782860 -0.373740 -0.010830
275 125 4 0.000000 -1.976760 3.355330 -1.458955
276 126 4 0.000000 -1.548710 -1.841680 2.182215
277 127 4 0.000000 -2.609740 0.825640 2.252640
278 128 4 0.000000 -4.730563 1.082780 1.086590
279 129 4 0.000000 0.061610 -1.095360 0.141670
280 130 4 0.000000 -4.958226 2.174230 2.369260
281 131 4 0.000000 1.720860 4.377460 -1.729590
282 132 4 0.000000 -1.830040 3.240870 1.196720
283 133 4 0.000000 2.390970 4.890350 2.029085
284 134 4 0.000000 2.178160 -4.897573 -1.199595
285 135 4 0.000000 4.090310 3.091710 -0.293685
286 136 4 0.000000 0.759980 1.632270 1.104750
287 137 4 0.000000 1.940110 -4.753035 -2.396260
288 138 4 0.000000 -3.468270 -4.661838 -1.043395
289 139 4 0.000000 2.236380 0.146260 1.159635
290 140 4 0.000000 3.829820 3.374630 0.926920
291 141 4 0.000000 -0.196630 -3.667800 -1.635610
292 142 4 0.000000 -2.951380 -2.234910 -2.488337
293 143 4 0.000000 -0.049480 2.938560 0.636370
294 144 4 0.000000 -3.473560 -1.556330 -1.981225
295 145 4 0.000000 -2.577690 1.156950 -0.948560
296 146 4 0.000000 2.621090 -3.605150 2.102585
297 147 4 0.000000 -2.331460 4.770770 2.351790
298 148 4 0.000000 -1.653160 1.549320 -2.386921
299 149 4 0.000000 0.946900 -2.709290 -1.657650
300 150 4 0.000000 -4.842630 1.498990 -1.585600
301 151 4 0.000000 -4.106692 3.592150 0.170740
302 152 4 0.000000 0.438210 -4.356154 0.575145
303 153 4 0.000000 -0.569190 3.312320 -1.202555
304 154 4 0.000000 0.741590 -3.904230 -1.600655
305 155 4 0.000000 -2.618570 -1.836780 -0.553335
306 156 4 0.000000 -3.337730 -3.177260 -0.725655
307 157 4 0.000000 3.138420 -3.752610 1.977165
308 158 4 0.000000 -0.244030 -1.630620 -0.787105
309 159 4 0.000000 -0.347650 -3.736370 -2.461316
310 160 4 0.000000 -4.135273 -1.206220 -1.878615
311 161 4 0.000000 -4.039722 -0.379920 -1.023425
312 162 4 0.000000 0.304990 1.459280 -1.159470
313 163 4 0.000000 1.106940 2.882810 0.620485
314 164 4 0.000000 -1.901720 -3.622050 -1.322815
315 165 4 0.000000 -4.305088 -4.207273 1.214575
316 166 4 0.000000 -0.880560 2.280460 -1.949315
317 167 4 0.000000 0.572630 1.295320 -2.189416
318 168 4 0.000000 4.964100 0.803020 1.791335
319 169 4 0.000000 -3.639890 -4.050341 0.239795
320 170 4 0.000000 -3.757700 -2.080960 1.825035
321 171 4 0.000000 -4.695297 -3.261170 -1.346195
322 172 4 0.000000 2.216310 -3.578310 2.395020
323 173 4 0.000000 -4.043243 0.014870 -1.467585
324 174 4 0.000000 2.164530 -0.538810 -0.746895
325 175 4 0.000000 0.763230 -3.966700 -0.394505
326 176 4 0.000000 -2.480600 3.143180 0.956740
327 177 4 0.000000 -3.237360 -0.351240 1.271755
328 178 4 0.000000 -4.192881 2.100620 -0.010395
329 179 4 0.000000 2.133120 4.950220 0.581750
330 180 4 0.000000 -3.684010 4.578220 -2.174624
331 181 4 0.000000 -4.577415 0.352000 1.708080
332 182 4 0.000000 0.275800 1.235600 -0.636760
333 183 4 0.000000 -4.553239 3.292820 1.059045
334 184 4 0.000000 -3.856720 0.652040 -1.035845
335 185 4 0.000000 -2.123590 2.422410 -0.508215
336 186 4 0.000000 -2.844640 2.521700 0.963000
337 187 4 0.000000 0.755280 1.237300 -1.316195
338 188 4 0.000000 0.914640 3.577070 0.267715
339 189 4 0.000000 0.727030 1.085180 0.373715
340 190 4 0.000000 -3.560600 3.459910 -0.430220
341 191 4 0.000000 -3.642920 2.374500 -2.369030
342 192 4 0.000000 -3.180000 3.365460 1.800750
343 193 4 0.000000 3.995710 -0.425810 -2.044878
344 194 4 0.000000 2.997150 -0.881720 0.551030
345 195 4 0.000000 4.011850 -4.137049 1.593975
346 196 4 0.000000 2.365140 -3.427100 -2.189373
347 197 4 0.000000 -0.562420 -1.115080 0.566695
348 198 4 0.000000 4.588410 -3.770020 -2.059281
349 199 4 0.000000 0.977200 2.126330 2.291660
350 200 4 0.000000 -3.869770 -4.928634 -0.061720
351 201 4 0.000000 -3.260420 2.496300 1.709155
352 202 4 0.000000 3.381690 0.783680 -0.365020
353 203 4 0.000000 -0.190570 4.283200 -0.152575
354 204 4 0.000000 -0.393370 3.527860 1.542960
355 205 4 0.000000 0.181100 1.846800 2.241895
356 206 4 0.000000 -1.858670 -0.262570 1.023615
357 207 4 0.000000 -4.236836 2.465330 0.442215
358 208 4 0.000000 -0.188550 4.281430 1.784595
359 209 4 0.000000 -1.911470 -0.392040 -0.776785
360 210 4 0.000000 0.535080 -4.569525 -1.987200
361 211 4 0.000000 -2.066640 4.582700 2.319060
362 212 4 0.000000 3.717900 3.811580 -1.686115
363 213 4 0.000000 1.845990 2.643970 2.008860
364 214 4 0.000000 -3.746200 -2.960620 0.788010
365 215 4 0.000000 -0.924100 -0.020890 -0.120865
366 216 4 0.000000 3.330150 1.859050 -1.782970
367 217 4 0.000000 -3.390320 1.118900 1.944865
368 218 4 0.000000 -3.617760 1.950610 -1.664060
369 219 4 0.000000 2.486280 1.956490 -1.446880
370 220 4 0.000000 0.140670 1.245720 1.632805
371 221 4 0.000000 -4.966090 -1.442660 1.085500
372 222 4 0.000000 -4.364210 -2.210680 -1.807010
373 223 4 0.000000 -1.368280 -0.981030 -2.445244
374 224 4 0.000000 -1.944220 0.836890 -1.050215
375 225 4 0.000000 -0.550050 -1.632220 -1.753720
376 226 4 0.000000 1.169550 -1.886850 0.332990
377 227 4 0.000000 -0.515120 -3.158920 -1.907230
378 228 4 0.000000 -2.257780 3.099680 0.038345
379 229 4 0.000000 -3.215670 -0.898210 2.099250
380 230 4 0.000000 -2.988850 1.783490 2.004950
381 231 4 0.000000 2.964960 -3.485320 -1.967620
382 232 4 0.000000 0.914790 -2.509670 2.173530
383 233 4 0.000000 -1.275140 -3.769350 -1.528870
384 234 4 0.000000 1.880840 0.871770 0.609670
385 235 4 0.000000 -2.251830 4.668500 -1.898340
386 236 4 0.000000 1.446410 0.431130 -0.221295
387 237 4 0.000000 -0.330560 -0.913750 -2.170658
388 238 4 0.000000 3.503820 4.570410 2.241285
389 239 4 0.000000 1.496560 3.699960 2.099650
390 240 4 0.000000 3.269210 1.695580 1.969120
391 241 4 0.000000 3.286270 -3.802470 1.378260
392 242 4 0.000000 -0.248170 4.785440 -0.145825
393 243 4 0.000000 -1.776850 3.049350 2.349965
394 244 4 0.000000 0.390670 0.768820 -1.020020
395 245 4 0.000000 -2.169110 -1.834220 1.492190
396 246 4 0.000000 3.143140 1.685870 -0.256725
397 247 4 0.000000 -0.533180 -2.959350 0.906635
398 248 4 0.000000 -3.043120 0.871280 1.589080
399 249 4 0.000000 -3.203900 1.439930 2.478975
400 250 4 0.000000 -0.773250 4.755640 -0.468410
401 251 4 0.000000 -2.551370 3.426520 2.485600
402 252 4 0.000000 4.841450 3.736280 -0.726630
403 253 4 0.000000 -2.721870 4.751660 0.804470
404 254 4 0.000000 1.934300 2.879680 -1.379640
405 255 4 0.000000 3.530210 -0.941070 -1.538380
406 256 4 0.000000 2.483310 2.391050 0.983495
407 257 4 0.000000 4.781310 0.126020 1.295380
408 258 4 0.000000 3.467730 -1.654810 1.878730
409 259 4 0.000000 -2.803730 1.619850 0.716960
410 260 4 0.000000 -4.040902 3.953720 0.905915
411 261 4 0.000000 -0.905570 -4.269327 1.797395
412 262 4 0.000000 0.369620 0.035950 -1.128180
413 263 4 0.000000 0.277710 -0.656770 -0.426795
414 264 4 0.000000 -4.135221 -3.620740 1.860545
415 265 4 0.000000 3.768230 -0.882040 -2.362484
416 266 4 0.000000 4.227150 2.500690 -0.245560
417 267 4 0.000000 2.144410 1.711820 -0.712920
418 268 4 0.000000 -4.432666 3.063070 -1.778315
419 269 4 0.000000 -1.346240 2.090760 0.315010
420 270 4 0.000000 -1.237630 -3.971060 -0.368095
421 271 4 0.000000 1.857510 -4.628147 0.246975
422 272 4 0.000000 3.858920 -3.370910 -1.920150
423 273 4 0.000000 4.868570 2.710710 2.017790
424 274 4 0.000000 -4.873286 0.346730 0.379105
425 275 4 0.000000 -2.537990 -2.783000 -1.204260
426 276 4 0.000000 2.956730 -3.725520 0.896335
427 277 4 0.000000 4.701590 -4.046167 -0.257400
428 278 4 0.000000 4.316060 3.418050 0.665280
429 279 4 0.000000 -2.899900 4.457560 2.373425
430 280 4 0.000000 2.765880 0.073570 -2.106924
431 281 4 0.000000 -0.057790 -4.372904 2.175800
432 282 4 0.000000 4.594600 2.143740 1.617955
433 283 4 0.000000 4.541380 0.892110 0.604905
434 284 4 0.000000 -3.865150 -4.164834 2.197515
435 285 4 0.000000 -1.815590 -4.129844 -0.249030
436 286 4 0.000000 -0.856660 1.387090 0.496345
437 287 4 0.000000 -2.603150 1.465680 0.426825
438 288 4 0.000000 3.762580 -1.209940 0.572210
439 289 4 0.000000 1.713850 2.003970 -0.871475
440 290 4 0.000000 -1.244590 -4.479947 0.126775
441 291 4 0.000000 -4.306895 -0.528570 1.116520
442 292 4 0.000000 -2.612340 -1.494190 -1.832530
443 293 4 0.000000 -1.015210 -3.720970 2.123680
444 294 4 0.000000 -0.713520 3.021420 0.372805
445 295 4 0.000000 -2.478210 -0.948110 -2.356467
446 296 4 0.000000 -2.821120 -4.350613 -1.362290
447 297 4 0.000000 2.609690 -0.373650 1.748460
448 298 4 0.000000 3.024110 3.942920 0.831805
449 299 4 0.000000 1.598990 3.797470 -1.419540
450 300 4 0.000000 0.945130 1.703700 0.335895
451 301 4 0.000000 3.835240 -2.466570 -0.104300
452 302 4 0.000000 0.865510 -1.341200 0.640975
453 303 4 0.000000 -0.161350 4.732760 -1.403150
454 304 4 0.000000 -3.599160 -1.832950 -0.888650
455 305 4 0.000000 3.385210 -0.050860 -1.086810
456 306 4 0.000000 -2.155090 -0.665610 1.574950
457 307 4 0.000000 -0.608750 2.382270 2.358320
458 308 4 0.000000 -0.773180 4.888810 -0.110095
459 309 4 0.000000 3.411200 -0.731310 2.387870
460 310 4 0.000000 -1.572350 -3.369230 1.869865
461 311 4 0.000000 1.101350 -4.511256 1.425255
462 312 4 0.000000 -2.841270 3.391550 -1.102520
463 313 4 0.000000 -1.744490 -1.137570 -1.411270
464 314 4 0.000000 -2.779950 -3.640400 -2.494591
465 315 4 0.000000 2.619960 -1.742770 0.591720
466 316 4 0.000000 -4.242040 2.558400 -0.897590
467 317 4 0.000000 -1.209630 0.401240 0.400880
468 318 4 0.000000 -2.828800 -3.935670 2.054475
469 319 4 0.000000 3.481070 -0.343440 1.385380
470 320 4 0.000000 -0.320150 4.500500 -2.441588
471 321 4 0.000000 0.797890 -2.471370 0.244100
472 322 4 0.000000 -1.910160 2.917440 -2.177377
473 323 4 0.000000 -0.491270 1.645630 -1.228820
474 324 4 0.000000 1.713440 1.516280 -0.746645
475 325 4 0.000000 -3.763500 -4.798265 1.246300
476 326 4 0.000000 1.752440 -1.995890 1.804170
477 327 4 0.000000 -4.215771 -4.940094 -0.992315
478 328 4 0.000000 0.948300 -1.151130 1.440280
479 329 4 0.000000 4.975900 -2.601120 -0.367070
480 330 4 0.000000 2.539370 3.088140 -1.598430
481 331 4 0.000000 4.803860 -2.082570 -0.263230
482 332 4 0.000000 2.442010 -1.958080 -2.419825
483 333 4 0.000000 -0.000580 -1.984870 0.636250
484 334 4 0.000000 4.092190 -4.525425 0.964235
485 335 4 0.000000 -2.800570 -0.715730 2.244255
486 336 4 0.000000 4.082900 -4.449036 -1.677590
487 337 4 0.000000 3.738970 3.966390 0.968335
488 338 4 0.000000 -4.982292 -4.178610 0.717900
489 339 4 0.000000 -2.883480 -4.303890 -0.665645
490 340 4 0.000000 -4.921854 -0.444740 -2.367294
491 341 4 0.000000 4.305580 -1.708800 0.597930
492 342 4 0.000000 -1.006760 -3.482030 -2.460129
493 343 4 0.000000 -2.247190 -2.827350 0.725795
494 344 4 0.000000 -2.501060 -2.740980 1.127510
495 345 4 0.000000 3.770670 3.914690 -0.079515
496 346 4 0.000000 3.800410 -4.313695 -0.247925
497 347 4 0.000000 -1.573560 -1.545340 -0.386290
498 348 4 0.000000 -3.064420 2.742670 2.474805
499 349 4 0.000000 -1.105220 -1.343360 0.906945
500 350 4 0.000000 2.009370 -4.015940 0.676915
501 351 4 0.000000 -1.479250 -0.275940 -1.020810
502 352 4 0.000000 4.135910 -2.467460 1.217890
503 353 4 0.000000 0.867510 2.150130 -0.336785
504 354 4 0.000000 1.323310 1.305690 -0.043845
505 355 4 0.000000 -1.324070 -2.681950 -2.419466
506 356 4 0.000000 1.261880 -4.906993 2.240900
507 357 4 0.000000 2.558510 -1.162780 1.823390
508 358 4 0.000000 -3.436200 -2.198710 -1.760120
509 359 4 0.000000 -2.301060 -4.526144 -0.469615
510 360 4 0.000000 1.091090 2.273210 -1.652280
511 361 4 0.000000 -2.892980 1.760840 1.341965
512 362 4 0.000000 -4.355363 -3.611010 -0.934875
513 363 4 0.000000 4.652760 -1.857000 0.625850
514 364 4 0.000000 2.897720 1.934470 1.490065
515 365 4 0.000000 1.639830 3.317330 -1.817755
516 366 4 0.000000 -2.198560 0.694650 0.440865
517 367 4 0.000000 -3.393020 3.674620 -2.075412
518 368 4 0.000000 3.645660 0.362270 -2.181935
519 369 4 0.000000 -1.357470 1.709940 0.417050
520 370 4 0.000000 3.218580 2.868620 1.046935
521 371 4 0.000000 0.543490 -4.031616 2.362715
522 372 4 0.000000 1.411410 -0.740590 1.473070
523 373 4 0.000000 3.555140 4.866420 -0.520040
524 374 4 0.000000 0.945510 -1.092870 -0.029165
525 375 4 0.000000 1.240370 -1.753110 -0.736420
526 376 4 0.000000 4.248900 -3.876540 2.049800
527 377 4 0.000000 -2.143700 -0.541380 -0.172770
528 378 4 0.000000 -4.216434 4.858200 -1.931645
529 379 4 0.000000 0.976540 -4.375757 0.567975
530 380 4 0.000000 -0.132970 -4.400756 -1.847615
531 381 4 0.000000 1.892100 0.356160 1.859440
532 382 4 0.000000 4.150300 1.771220 -1.594730
533 383 4 0.000000 -4.237199 -3.145110 1.983980
534 384 4 0.000000 -3.137820 -0.064560 2.404760
535 385 4 0.000000 0.999920 -0.802760 0.545395
536 386 4 0.000000 2.003780 -0.555920 -2.127620
537 387 4 0.000000 1.548370 2.943210 1.157200
538 388 4 0.000000 -3.602560 4.761520 -1.990205
539 389 4 0.000000 -3.394110 -4.536913 -2.349731
540 390 4 0.000000 2.271170 2.167930 0.009520
541 391 4 0.000000 -4.039335 -2.218470 -1.745980
542 392 4 0.000000 -2.754920 -4.668056 1.051755
543 393 4 0.000000 1.504500 1.613120 0.482665
544 394 4 0.000000 1.370200 -2.719700 -2.345125
545 395 4 0.000000 0.313900 -1.674790 2.006905
546 396 4 0.000000 0.447610 0.740400 -0.098950
547 397 4 0.000000 3.539580 -4.022469 1.184520
548 398 4 0.000000 -2.636970 -0.061660 1.759165
549 399 4 0.000000 -4.970748 -0.992730 0.373615
550 400 4 0.000000 -2.242730 4.820530 -0.528425
551 401 4 0.000000 0.729690 0.854340 -2.165213
552 402 4 0.000000 -3.404860 -1.701480 0.890290
553 403 4 0.000000 4.368620 3.978230 0.636040
554 404 4 0.000000 3.375280 -1.363580 -1.200305
555 405 4 0.000000 -4.486579 -3.563660 1.428160
556 406 4 0.000000 -4.936675 -0.634400 -1.018250
557 407 4 0.000000 3.851420 0.840730 -0.306210
558 408 4 0.000000 1.261970 -3.313280 1.203675
559 409 4 0.000000 -4.577060 -2.382630 -0.556595
560 410 4 0.000000 3.430000 2.512880 0.244760
561 411 4 0.000000 1.799650 2.249570 0.894135
562 412 4 0.000000 -3.215590 -4.913879 1.948140
563 413 4 0.000000 2.736340 -3.443080 1.212815
564 414 4 0.000000 3.728350 -3.139220 1.974980
565 415 4 0.000000 0.215950 4.037920 -1.615575
566 416 4 0.000000 -0.174360 4.617540 1.036540
567 417 4 0.000000 0.987290 -1.242010 1.995560
568 418 4 0.000000 0.242760 0.974170 -1.909415
569 419 4 0.000000 0.678170 -4.167799 0.275775
570 420 4 0.000000 -4.374976 4.611360 1.918775
571 421 4 0.000000 2.879280 3.064690 2.383305
572 422 4 0.000000 -3.652590 -0.928680 1.625000
573 423 4 0.000000 4.216960 -0.906930 2.288240
574 424 4 0.000000 2.541360 -0.282520 0.221315
575 425 4 0.000000 -3.021110 -2.723270 0.176425
576 426 4 0.000000 4.852040 4.170100 1.735400
577 427 4 0.000000 -0.979990 0.307670 2.420070
578 428 4 0.000000 4.305800 -4.902082 2.197720
579 429 4 0.000000 1.507310 4.053900 -1.494720
580 430 4 0.000000 -2.444790 1.386320 2.251485
581 431 4 0.000000 2.646810 2.320860 1.983570
582 432 4 0.000000 -1.025310 4.127090 0.925610
583 433 4 0.000000 -1.633480 -0.004980 0.562765
584 434 4 0.000000 3.822880 0.975940 0.281965
585 435 4 0.000000 3.788320 1.437370 -0.830750
586 436 4 0.000000 4.109010 3.694590 -1.125440
587 437 4 0.000000 -1.232480 4.815001 -1.801845
588 438 4 0.000000 2.087480 -3.030010 -0.216615
589 439 4 0.000000 0.214980 -2.404450 -1.776435
590 440 4 0.000000 4.222900 2.755300 1.531525
591 441 4 0.000000 2.709700 -1.097530 -0.890490
592 442 4 0.000000 -3.583730 4.759460 0.862790
593 443 4 0.000000 4.724790 0.391860 2.077240
594 444 4 0.000000 4.758110 -1.337590 1.254230
595 445 4 0.000000 2.809530 -3.971800 -2.495540
596 446 4 0.000000 -4.075435 4.927750 2.338125
597 447 4 0.000000 -1.144560 -1.996740 0.884000
598 448 4 0.000000 4.956930 0.999940 2.401525
599 449 4 0.000000 -0.045060 -4.010014 0.886115
600 450 4 0.000000 1.030790 -3.423390 -0.773840
601 451 4 0.000000 -1.628450 4.147100 0.476600
602 452 4 0.000000 -0.357790 -2.719320 -1.110730
603 453 4 0.000000 1.614190 -0.490870 -0.404680
604 454 4 0.000000 -4.949625 1.539840 1.873525
605 455 4 0.000000 2.726280 1.837230 1.390575
606 456 4 0.000000 1.009320 -0.798290 2.333740
607 457 4 0.000000 4.768200 0.933060 -0.339980
608 458 4 0.000000 -3.712190 -3.765830 1.823355
609 459 4 0.000000 0.085450 -1.754680 -2.162940
610 460 4 0.000000 4.666870 4.341100 2.273450
611 461 4 0.000000 1.200120 4.876920 -1.323930
612 462 4 0.000000 -4.579529 2.265530 -1.039405
613 463 4 0.000000 0.294860 1.989860 -1.106350
614 464 4 0.000000 -4.053565 1.913470 2.158535
615 465 4 0.000000 -0.161740 4.281620 -0.903465
616 466 4 0.000000 -1.283330 2.501880 1.005540
617 467 4 0.000000 0.326080 -0.415830 -1.329380
618 468 4 0.000000 1.078980 -3.011300 -1.876620
619 469 4 0.000000 -2.739360 1.600710 -1.879110
620 470 4 0.000000 3.474430 -4.950375 1.962290
621 471 4 0.000000 -1.158620 -2.912660 -1.168955
622 472 4 0.000000 1.637560 2.384280 0.125090
623 473 4 0.000000 -0.077550 -0.361990 -2.152618
624 474 4 0.000000 0.204310 2.524840 -0.623505
625 475 4 0.000000 -0.704690 3.274530 1.144390
626 476 4 0.000000 3.895460 4.941340 0.635070
627 477 4 0.000000 -2.703940 -3.246950 -1.966315
628 478 4 0.000000 3.199950 -3.309040 -0.436385
629 479 4 0.000000 -2.125700 -3.907940 -0.947710
630 480 4 0.000000 1.793350 -4.463482 -0.504120
631 481 4 0.000000 0.955940 -1.781480 -1.921120
632 482 4 0.000000 3.136890 -2.715520 2.306735
633 483 4 0.000000 0.799110 -4.050152 -1.964145
634 484 4 0.000000 0.666160 2.257650 -2.204969