LAMMPS file only fibrinogen 

2814 atoms 
2144 bonds 
1876 angles 
0 dihedrals 
0 impropers 
 
5 atom types 
1 bond types 
1 angle types 
5 extra bond per atom 
 
-500.000000 500.000000 xlo xhi 
-125.000000 125.000000 ylo yhi 
-125.000000 125.000000 zlo zhi 
 
Masses 
 
1 20005.0 
2 32500.0 
3 25000.0 
4 20000.0 
5 20000.0 
 
Atoms 
 
1 1 2 0.000000 460.645 55.652 -82.494 
2 1 1 0.000000 466.395 55.652 -82.494 
3 1 1 0.000000 472.145 55.652 -82.494 
4 1 1 0.000000 477.895 55.652 -82.494 
5 1 3 0.000000 483.645 55.652 -82.494 
6 1 1 0.000000 489.395 55.652 -82.494 
7 1 1 0.000000 495.145 55.652 -82.494 
8 1 1 0.000000 -499.105 55.652 -82.494 
9 1 2 0.000000 -493.355 55.652 -82.494 
10 2 2 0.000000 -238.586 32.274 -27.235 
11 2 1 0.000000 -232.836 32.274 -27.235 
12 2 1 0.000000 -227.086 32.274 -27.235 
13 2 1 0.000000 -221.336 32.274 -27.235 
14 2 3 0.000000 -215.586 32.274 -27.235 
15 2 1 0.000000 -209.836 32.274 -27.235 
16 2 1 0.000000 -204.086 32.274 -27.235 
17 2 1 0.000000 -198.336 32.274 -27.235 
18 2 2 0.000000 -192.586 32.274 -27.235 
19 3 2 0.000000 452.143 -20.859 108.785 
20 3 1 0.000000 457.893 -20.859 108.785 
21 3 1 0.000000 463.643 -20.859 108.785 
22 3 1 0.000000 469.393 -20.859 108.785 
23 3 3 0.000000 475.143 -20.859 108.785 
24 3 1 0.000000 480.893 -20.859 108.785 
25 3 1 0.000000 486.643 -20.859 108.785 
26 3 1 0.000000 492.393 -20.859 108.785 
27 3 2 0.000000 498.143 -20.859 108.785 
28 4 2 0.000000 -289.593 -116.499 93.908 
29 4 1 0.000000 -283.843 -116.499 93.908 
30 4 1 0.000000 -278.093 -116.499 93.908 
31 4 1 0.000000 -272.343 -116.499 93.908 
32 4 3 0.000000 -266.593 -116.499 93.908 
33 4 1 0.000000 -260.843 -116.499 93.908 
34 4 1 0.000000 -255.093 -116.499 93.908 
35 4 1 0.000000 -249.343 -116.499 93.908 
36 4 2 0.000000 -243.593 -116.499 93.908 
37 5 2 0.000000 -130.194 4.645 -10.233 
38 5 1 0.000000 -124.444 4.645 -10.233 
39 5 1 0.000000 -118.694 4.645 -10.233 
40 5 1 0.000000 -112.944 4.645 -10.233 
41 5 3 0.000000 -107.194 4.645 -10.233 
42 5 1 0.000000 -101.444 4.645 -10.233 
43 5 1 0.000000 -95.694 4.645 -10.233 
44 5 1 0.000000 -89.944 4.645 -10.233 
45 5 2 0.000000 -84.194 4.645 -10.233 
46 6 2 0.000000 207.732 -25.110 11.020 
47 6 1 0.000000 213.482 -25.110 11.020 
48 6 1 0.000000 219.232 -25.110 11.020 
49 6 1 0.000000 224.982 -25.110 11.020 
50 6 3 0.000000 230.732 -25.110 11.020 
51 6 1 0.000000 236.482 -25.110 11.020 
52 6 1 0.000000 242.232 -25.110 11.020 
53 6 1 0.000000 247.982 -25.110 11.020 
54 6 2 0.000000 253.732 -25.110 11.020 
55 7 2 0.000000 341.627 -22.985 -3.857 
56 7 1 0.000000 347.377 -22.985 -3.857 
57 7 1 0.000000 353.127 -22.985 -3.857 
58 7 1 0.000000 358.877 -22.985 -3.857 
59 7 3 0.000000 364.627 -22.985 -3.857 
60 7 1 0.000000 370.377 -22.985 -3.857 
61 7 1 0.000000 376.127 -22.985 -3.857 
62 7 1 0.000000 381.877 -22.985 -3.857 
63 7 2 0.000000 387.627 -22.985 -3.857 
64 8 2 0.000000 124.844 -50.614 64.153 
65 8 1 0.000000 130.594 -50.614 64.153 
66 8 1 0.000000 136.344 -50.614 64.153 
67 8 1 0.000000 142.094 -50.614 64.153 
68 8 3 0.000000 147.844 -50.614 64.153 
69 8 1 0.000000 153.594 -50.614 64.153 
70 8 1 0.000000 159.344 -50.614 64.153 
71 8 1 0.000000 165.094 -50.614 64.153 
72 8 2 0.000000 170.844 -50.614 64.153 
73 9 2 0.000000 18.578 -88.870 121.537 
74 9 1 0.000000 24.328 -88.870 121.537 
75 9 1 0.000000 30.078 -88.870 121.537 
76 9 1 0.000000 35.828 -88.870 121.537 
77 9 3 0.000000 41.578 -88.870 121.537 
78 9 1 0.000000 47.328 -88.870 121.537 
79 9 1 0.000000 53.078 -88.870 121.537 
80 9 1 0.000000 58.828 -88.870 121.537 
81 9 2 0.000000 64.578 -88.870 121.537 
82 10 2 0.000000 97.215 0.394 -101.621 
83 10 1 0.000000 102.965 0.394 -101.621 
84 10 1 0.000000 108.715 0.394 -101.621 
85 10 1 0.000000 114.465 0.394 -101.621 
86 10 3 0.000000 120.215 0.394 -101.621 
87 10 1 0.000000 125.965 0.394 -101.621 
88 10 1 0.000000 131.715 0.394 -101.621 
89 10 1 0.000000 137.465 0.394 -101.621 
90 10 2 0.000000 143.215 0.394 -101.621 
91 11 2 0.000000 -431.990 25.898 72.655 
92 11 1 0.000000 -426.240 25.898 72.655 
93 11 1 0.000000 -420.490 25.898 72.655 
94 11 1 0.000000 -414.740 25.898 72.655 
95 11 3 0.000000 -408.990 25.898 72.655 
96 11 1 0.000000 -403.240 25.898 72.655 
97 11 1 0.000000 -397.490 25.898 72.655 
98 11 1 0.000000 -391.740 25.898 72.655 
99 11 2 0.000000 -385.990 25.898 72.655 
100 12 2 0.000000 267.241 115.161 51.402 
101 12 1 0.000000 272.991 115.161 51.402 
102 12 1 0.000000 278.741 115.161 51.402 
103 12 1 0.000000 284.491 115.161 51.402 
104 12 3 0.000000 290.241 115.161 51.402 
105 12 1 0.000000 295.991 115.161 51.402 
106 12 1 0.000000 301.741 115.161 51.402 
107 12 1 0.000000 307.491 115.161 51.402 
108 12 2 0.000000 313.241 115.161 51.402 
109 13 2 0.000000 367.131 102.409 -48.488 
110 13 1 0.000000 372.881 102.409 -48.488 
111 13 1 0.000000 378.631 102.409 -48.488 
112 13 1 0.000000 384.381 102.409 -48.488 
113 13 3 0.000000 390.131 102.409 -48.488 
114 13 1 0.000000 395.881 102.409 -48.488 
115 13 1 0.000000 401.631 102.409 -48.488 
116 13 1 0.000000 407.381 102.409 -48.488 
117 13 2 0.000000 413.131 102.409 -48.488 
118 14 2 0.000000 -414.987 -120.749 -118.624 
119 14 1 0.000000 -409.237 -120.749 -118.624 
120 14 1 0.000000 -403.487 -120.749 -118.624 
121 14 1 0.000000 -397.737 -120.749 -118.624 
122 14 3 0.000000 -391.987 -120.749 -118.624 
123 14 1 0.000000 -386.237 -120.749 -118.624 
124 14 1 0.000000 -380.487 -120.749 -118.624 
125 14 1 0.000000 -374.737 -120.749 -118.624 
126 14 2 0.000000 -368.987 -120.749 -118.624 
127 15 2 0.000000 -453.243 -1.731 53.527 
128 15 1 0.000000 -447.493 -1.731 53.527 
129 15 1 0.000000 -441.743 -1.731 53.527 
130 15 1 0.000000 -435.993 -1.731 53.527 
131 15 3 0.000000 -430.243 -1.731 53.527 
132 15 1 0.000000 -424.493 -1.731 53.527 
133 15 1 0.000000 -418.743 -1.731 53.527 
134 15 1 0.000000 -412.993 -1.731 53.527 
135 15 2 0.000000 -407.243 -1.731 53.527 
136 16 2 0.000000 477.647 64.153 -116.499 
137 16 1 0.000000 483.397 64.153 -116.499 
138 16 1 0.000000 489.147 64.153 -116.499 
139 16 1 0.000000 494.897 64.153 -116.499 
140 16 3 0.000000 -499.353 64.153 -116.499 
141 16 1 0.000000 -493.603 64.153 -116.499 
142 16 1 0.000000 -487.853 64.153 -116.499 
143 16 1 0.000000 -482.103 64.153 -116.499 
144 16 2 0.000000 -476.353 64.153 -116.499 
145 17 2 0.000000 54.709 117.286 -25.110 
146 17 1 0.000000 60.459 117.286 -25.110 
147 17 1 0.000000 66.209 117.286 -25.110 
148 17 1 0.000000 71.959 117.286 -25.110 
149 17 3 0.000000 77.709 117.286 -25.110 
150 17 1 0.000000 83.459 117.286 -25.110 
151 17 1 0.000000 89.209 117.286 -25.110 
152 17 1 0.000000 94.959 117.286 -25.110 
153 17 2 0.000000 100.709 117.286 -25.110 
154 18 2 0.000000 143.972 -95.246 2.519 
155 18 1 0.000000 149.722 -95.246 2.519 
156 18 1 0.000000 155.472 -95.246 2.519 
157 18 1 0.000000 161.222 -95.246 2.519 
158 18 3 0.000000 166.972 -95.246 2.519 
159 18 1 0.000000 172.722 -95.246 2.519 
160 18 1 0.000000 178.472 -95.246 2.519 
161 18 1 0.000000 184.222 -95.246 2.519 
162 18 2 0.000000 189.972 -95.246 2.519 
163 19 2 0.000000 -128.069 85.407 28.023 
164 19 1 0.000000 -122.319 85.407 28.023 
165 19 1 0.000000 -116.569 85.407 28.023 
166 19 1 0.000000 -110.819 85.407 28.023 
167 19 3 0.000000 -105.069 85.407 28.023 
168 19 1 0.000000 -99.319 85.407 28.023 
169 19 1 0.000000 -93.569 85.407 28.023 
170 19 1 0.000000 -87.819 85.407 28.023 
171 19 2 0.000000 -82.069 85.407 28.023 
172 20 2 0.000000 -427.739 -27.235 91.783 
173 20 1 0.000000 -421.989 -27.235 91.783 
174 20 1 0.000000 -416.239 -27.235 91.783 
175 20 1 0.000000 -410.489 -27.235 91.783 
176 20 3 0.000000 -404.739 -27.235 91.783 
177 20 1 0.000000 -398.989 -27.235 91.783 
178 20 1 0.000000 -393.239 -27.235 91.783 
179 20 1 0.000000 -387.489 -27.235 91.783 
180 20 2 0.000000 -381.739 -27.235 91.783 
181 21 2 0.000000 -176.951 -90.995 -114.373 
182 21 1 0.000000 -171.201 -90.995 -114.373 
183 21 1 0.000000 -165.451 -90.995 -114.373 
184 21 1 0.000000 -159.701 -90.995 -114.373 
185 21 3 0.000000 -153.951 -90.995 -114.373 
186 21 1 0.000000 -148.201 -90.995 -114.373 
187 21 1 0.000000 -142.451 -90.995 -114.373 
188 21 1 0.000000 -136.701 -90.995 -114.373 
189 21 2 0.000000 -130.951 -90.995 -114.373 
190 22 2 0.000000 228.985 36.524 55.652 
191 22 1 0.000000 234.735 36.524 55.652 
192 22 1 0.000000 240.485 36.524 55.652 
193 22 1 0.000000 246.235 36.524 55.652 
194 22 3 0.000000 251.985 36.524 55.652 
195 22 1 0.000000 257.735 36.524 55.652 
196 22 1 0.000000 263.485 36.524 55.652 
197 22 1 0.000000 269.235 36.524 55.652 
198 22 2 0.000000 274.985 36.524 55.652 
199 23 2 0.000000 -304.471 -65.491 6.770 
200 23 1 0.000000 -298.721 -65.491 6.770 
201 23 1 0.000000 -292.971 -65.491 6.770 
202 23 1 0.000000 -287.221 -65.491 6.770 
203 23 3 0.000000 -281.471 -65.491 6.770 
204 23 1 0.000000 -275.721 -65.491 6.770 
205 23 1 0.000000 -269.971 -65.491 6.770 
206 23 1 0.000000 -264.221 -65.491 6.770 
207 23 2 0.000000 -258.471 -65.491 6.770 
208 24 2 0.000000 139.721 30.148 -103.747 
209 24 1 0.000000 145.471 30.148 -103.747 
210 24 1 0.000000 151.221 30.148 -103.747 
211 24 1 0.000000 156.971 30.148 -103.747 
212 24 3 0.000000 162.721 30.148 -103.747 
213 24 1 0.000000 168.471 30.148 -103.747 
214 24 1 0.000000 174.221 30.148 -103.747 
215 24 1 0.000000 179.971 30.148 -103.747 
216 24 2 0.000000 185.721 30.148 -103.747 
217 25 2 0.000000 -138.696 -54.864 57.778 
218 25 1 0.000000 -132.946 -54.864 57.778 
219 25 1 0.000000 -127.196 -54.864 57.778 
220 25 1 0.000000 -121.446 -54.864 57.778 
221 25 3 0.000000 -115.696 -54.864 57.778 
222 25 1 0.000000 -109.946 -54.864 57.778 
223 25 1 0.000000 -104.196 -54.864 57.778 
224 25 1 0.000000 -98.446 -54.864 57.778 
225 25 2 0.000000 -92.696 -54.864 57.778 
226 26 2 0.000000 190.729 62.028 123.662 
227 26 1 0.000000 196.479 62.028 123.662 
228 26 1 0.000000 202.229 62.028 123.662 
229 26 1 0.000000 207.979 62.028 123.662 
230 26 3 0.000000 213.729 62.028 123.662 
231 26 1 0.000000 219.479 62.028 123.662 
232 26 1 0.000000 225.229 62.028 123.662 
233 26 1 0.000000 230.979 62.028 123.662 
234 26 2 0.000000 236.729 62.028 123.662 
235 27 2 0.000000 435.141 -118.624 87.532 
236 27 1 0.000000 440.891 -118.624 87.532 
237 27 1 0.000000 446.641 -118.624 87.532 
238 27 1 0.000000 452.391 -118.624 87.532 
239 27 3 0.000000 458.141 -118.624 87.532 
240 27 1 0.000000 463.891 -118.624 87.532 
241 27 1 0.000000 469.641 -118.624 87.532 
242 27 1 0.000000 475.391 -118.624 87.532 
243 27 2 0.000000 481.141 -118.624 87.532 
244 28 2 0.000000 369.256 -52.739 8.895 
245 28 1 0.000000 375.006 -52.739 8.895 
246 28 1 0.000000 380.756 -52.739 8.895 
247 28 1 0.000000 386.506 -52.739 8.895 
248 28 3 0.000000 392.256 -52.739 8.895 
249 28 1 0.000000 398.006 -52.739 8.895 
250 28 1 0.000000 403.756 -52.739 8.895 
251 28 1 0.000000 409.506 -52.739 8.895 
252 28 2 0.000000 415.256 -52.739 8.895 
253 29 2 0.000000 146.097 91.783 -107.997 
254 29 1 0.000000 151.847 91.783 -107.997 
255 29 1 0.000000 157.597 91.783 -107.997 
256 29 1 0.000000 163.347 91.783 -107.997 
257 29 3 0.000000 169.097 91.783 -107.997 
258 29 1 0.000000 174.847 91.783 -107.997 
259 29 1 0.000000 180.597 91.783 -107.997 
260 29 1 0.000000 186.347 91.783 -107.997 
261 29 2 0.000000 192.097 91.783 -107.997 
262 30 2 0.000000 -306.596 57.778 0.394 
263 30 1 0.000000 -300.846 57.778 0.394 
264 30 1 0.000000 -295.096 57.778 0.394 
265 30 1 0.000000 -289.346 57.778 0.394 
266 30 3 0.000000 -283.596 57.778 0.394 
267 30 1 0.000000 -277.846 57.778 0.394 
268 30 1 0.000000 -272.096 57.778 0.394 
269 30 1 0.000000 -266.346 57.778 0.394 
270 30 2 0.000000 -260.596 57.778 0.394 
271 31 2 0.000000 -189.703 23.772 4.645 
272 31 1 0.000000 -183.953 23.772 4.645 
273 31 1 0.000000 -178.203 23.772 4.645 
274 31 1 0.000000 -172.453 23.772 4.645 
275 31 3 0.000000 -166.703 23.772 4.645 
276 31 1 0.000000 -160.953 23.772 4.645 
277 31 1 0.000000 -155.203 23.772 4.645 
278 31 1 0.000000 -149.453 23.772 4.645 
279 31 2 0.000000 -143.703 23.772 4.645 
280 32 2 0.000000 -247.087 -76.118 47.151 
281 32 1 0.000000 -241.337 -76.118 47.151 
282 32 1 0.000000 -235.587 -76.118 47.151 
283 32 1 0.000000 -229.837 -76.118 47.151 
284 32 3 0.000000 -224.087 -76.118 47.151 
285 32 1 0.000000 -218.337 -76.118 47.151 
286 32 1 0.000000 -212.587 -76.118 47.151 
287 32 1 0.000000 -206.837 -76.118 47.151 
288 32 2 0.000000 -201.087 -76.118 47.151 
289 33 2 0.000000 -96.189 42.900 38.650 
290 33 1 0.000000 -90.439 42.900 38.650 
291 33 1 0.000000 -84.689 42.900 38.650 
292 33 1 0.000000 -78.939 42.900 38.650 
293 33 3 0.000000 -73.189 42.900 38.650 
294 33 1 0.000000 -67.439 42.900 38.650 
295 33 1 0.000000 -61.689 42.900 38.650 
296 33 1 0.000000 -55.939 42.900 38.650 
297 33 2 0.000000 -50.189 42.900 38.650 
298 34 2 0.000000 177.977 -14.483 -16.609 
299 34 1 0.000000 183.727 -14.483 -16.609 
300 34 1 0.000000 189.477 -14.483 -16.609 
301 34 1 0.000000 195.227 -14.483 -16.609 
302 34 3 0.000000 200.977 -14.483 -16.609 
303 34 1 0.000000 206.727 -14.483 -16.609 
304 34 1 0.000000 212.477 -14.483 -16.609 
305 34 1 0.000000 218.227 -14.483 -16.609 
306 34 2 0.000000 223.977 -14.483 -16.609 
307 35 2 0.000000 -261.964 83.281 -67.616 
308 35 1 0.000000 -256.214 83.281 -67.616 
309 35 1 0.000000 -250.464 83.281 -67.616 
310 35 1 0.000000 -244.714 83.281 -67.616 
311 35 3 0.000000 -238.964 83.281 -67.616 
312 35 1 0.000000 -233.214 83.281 -67.616 
313 35 1 0.000000 -227.464 83.281 -67.616 
314 35 1 0.000000 -221.714 83.281 -67.616 
315 35 2 0.000000 -215.964 83.281 -67.616 
316 36 2 0.000000 -230.084 72.655 -52.739 
317 36 1 0.000000 -224.334 72.655 -52.739 
318 36 1 0.000000 -218.584 72.655 -52.739 
319 36 1 0.000000 -212.834 72.655 -52.739 
320 36 3 0.000000 -207.084 72.655 -52.739 
321 36 1 0.000000 -201.334 72.655 -52.739 
322 36 1 0.000000 -195.584 72.655 -52.739 
323 36 1 0.000000 -189.834 72.655 -52.739 
324 36 2 0.000000 -184.084 72.655 -52.739 
325 37 2 0.000000 12.202 15.271 36.524 
326 37 1 0.000000 17.952 15.271 36.524 
327 37 1 0.000000 23.702 15.271 36.524 
328 37 1 0.000000 29.452 15.271 36.524 
329 37 3 0.000000 35.202 15.271 36.524 
330 37 1 0.000000 40.952 15.271 36.524 
331 37 1 0.000000 46.702 15.271 36.524 
332 37 1 0.000000 52.452 15.271 36.524 
333 37 2 0.000000 58.202 15.271 36.524 
334 38 2 0.000000 399.010 47.151 15.271 
335 38 1 0.000000 404.760 47.151 15.271 
336 38 1 0.000000 410.510 47.151 15.271 
337 38 1 0.000000 416.260 47.151 15.271 
338 38 3 0.000000 422.010 47.151 15.271 
339 38 1 0.000000 427.760 47.151 15.271 
340 38 1 0.000000 433.510 47.151 15.271 
341 38 1 0.000000 439.260 47.151 15.271 
342 38 2 0.000000 445.010 47.151 15.271 
343 39 2 0.000000 354.379 76.905 100.284 
344 39 1 0.000000 360.129 76.905 100.284 
345 39 1 0.000000 365.879 76.905 100.284 
346 39 1 0.000000 371.629 76.905 100.284 
347 39 3 0.000000 377.379 76.905 100.284 
348 39 1 0.000000 383.129 76.905 100.284 
349 39 1 0.000000 388.879 76.905 100.284 
350 39 1 0.000000 394.629 76.905 100.284 
351 39 2 0.000000 400.379 76.905 100.284 
352 40 2 0.000000 -149.322 -18.734 98.159 
353 40 1 0.000000 -143.572 -18.734 98.159 
354 40 1 0.000000 -137.822 -18.734 98.159 
355 40 1 0.000000 -132.072 -18.734 98.159 
356 40 3 0.000000 -126.322 -18.734 98.159 
357 40 1 0.000000 -120.572 -18.734 98.159 
358 40 1 0.000000 -114.822 -18.734 98.159 
359 40 1 0.000000 -109.072 -18.734 98.159 
360 40 2 0.000000 -103.322 -18.734 98.159 
361 41 2 0.000000 150.348 119.412 -122.875 
362 41 1 0.000000 156.098 119.412 -122.875 
363 41 1 0.000000 161.848 119.412 -122.875 
364 41 1 0.000000 167.598 119.412 -122.875 
365 41 3 0.000000 173.348 119.412 -122.875 
366 41 1 0.000000 179.098 119.412 -122.875 
367 41 1 0.000000 184.848 119.412 -122.875 
368 41 1 0.000000 190.598 119.412 -122.875 
369 41 2 0.000000 196.348 119.412 -122.875 
370 42 2 0.000000 -425.614 -71.867 102.409 
371 42 1 0.000000 -419.864 -71.867 102.409 
372 42 1 0.000000 -414.114 -71.867 102.409 
373 42 1 0.000000 -408.364 -71.867 102.409 
374 42 3 0.000000 -402.614 -71.867 102.409 
375 42 1 0.000000 -396.864 -71.867 102.409 
376 42 1 0.000000 -391.114 -71.867 102.409 
377 42 1 0.000000 -385.364 -71.867 102.409 
378 42 2 0.000000 -379.614 -71.867 102.409 
379 43 2 0.000000 -487.248 59.903 117.286 
380 43 1 0.000000 -481.498 59.903 117.286 
381 43 1 0.000000 -475.748 59.903 117.286 
382 43 1 0.000000 -469.998 59.903 117.286 
383 43 3 0.000000 -464.248 59.903 117.286 
384 43 1 0.000000 -458.498 59.903 117.286 
385 43 1 0.000000 -452.748 59.903 117.286 
386 43 1 0.000000 -446.998 59.903 117.286 
387 43 2 0.000000 -441.248 59.903 117.286 
388 44 2 0.000000 63.210 -107.997 -5.982 
389 44 1 0.000000 68.960 -107.997 -5.982 
390 44 1 0.000000 74.710 -107.997 -5.982 
391 44 1 0.000000 80.460 -107.997 -5.982 
392 44 3 0.000000 86.210 -107.997 -5.982 
393 44 1 0.000000 91.960 -107.997 -5.982 
394 44 1 0.000000 97.710 -107.997 -5.982 
395 44 1 0.000000 103.460 -107.997 -5.982 
396 44 2 0.000000 109.210 -107.997 -5.982 
397 45 2 0.000000 390.509 68.404 89.657 
398 45 1 0.000000 396.259 68.404 89.657 
399 45 1 0.000000 402.009 68.404 89.657 
400 45 1 0.000000 407.759 68.404 89.657 
401 45 3 0.000000 413.509 68.404 89.657 
402 45 1 0.000000 419.259 68.404 89.657 
403 45 1 0.000000 425.009 68.404 89.657 
404 45 1 0.000000 430.759 68.404 89.657 
405 45 2 0.000000 436.509 68.404 89.657 
406 46 2 0.000000 214.108 96.033 45.026 
407 46 1 0.000000 219.858 96.033 45.026 
408 46 1 0.000000 225.608 96.033 45.026 
409 46 1 0.000000 231.358 96.033 45.026 
410 46 3 0.000000 237.108 96.033 45.026 
411 46 1 0.000000 242.858 96.033 45.026 
412 46 1 0.000000 248.608 96.033 45.026 
413 46 1 0.000000 254.358 96.033 45.026 
414 46 2 0.000000 260.108 96.033 45.026 
415 47 2 0.000000 -242.836 53.527 25.898 
416 47 1 0.000000 -237.086 53.527 25.898 
417 47 1 0.000000 -231.336 53.527 25.898 
418 47 1 0.000000 -225.586 53.527 25.898 
419 47 3 0.000000 -219.836 53.527 25.898 
420 47 1 0.000000 -214.086 53.527 25.898 
421 47 1 0.000000 -208.336 53.527 25.898 
422 47 1 0.000000 -202.586 53.527 25.898 
423 47 2 0.000000 -196.836 53.527 25.898 
424 48 2 0.000000 75.962 38.650 119.412 
425 48 1 0.000000 81.712 38.650 119.412 
426 48 1 0.000000 87.462 38.650 119.412 
427 48 1 0.000000 93.212 38.650 119.412 
428 48 3 0.000000 98.962 38.650 119.412 
429 48 1 0.000000 104.712 38.650 119.412 
430 48 1 0.000000 110.462 38.650 119.412 
431 48 1 0.000000 116.212 38.650 119.412 
432 48 2 0.000000 121.962 38.650 119.412 
433 49 2 0.000000 328.875 -16.609 104.535 
434 49 1 0.000000 334.625 -16.609 104.535 
435 49 1 0.000000 340.375 -16.609 104.535 
436 49 1 0.000000 346.125 -16.609 104.535 
437 49 3 0.000000 351.875 -16.609 104.535 
438 49 1 0.000000 357.625 -16.609 104.535 
439 49 1 0.000000 363.375 -16.609 104.535 
440 49 1 0.000000 369.125 -16.609 104.535 
441 49 2 0.000000 374.875 -16.609 104.535 
442 50 2 0.000000 -15.427 -84.619 -71.867 
443 50 1 0.000000 -9.677 -84.619 -71.867 
444 50 1 0.000000 -3.927 -84.619 -71.867 
445 50 1 0.000000 1.823 -84.619 -71.867 
446 50 3 0.000000 7.573 -84.619 -71.867 
447 50 1 0.000000 13.323 -84.619 -71.867 
448 50 1 0.000000 19.073 -84.619 -71.867 
449 50 1 0.000000 24.823 -84.619 -71.867 
450 50 2 0.000000 30.573 -84.619 -71.867 
451 51 2 0.000000 -159.949 -82.494 -20.859 
452 51 1 0.000000 -154.199 -82.494 -20.859 
453 51 1 0.000000 -148.449 -82.494 -20.859 
454 51 1 0.000000 -142.699 -82.494 -20.859 
455 51 3 0.000000 -136.949 -82.494 -20.859 
456 51 1 0.000000 -131.199 -82.494 -20.859 
457 51 1 0.000000 -125.449 -82.494 -20.859 
458 51 1 0.000000 -119.699 -82.494 -20.859 
459 51 2 0.000000 -113.949 -82.494 -20.859 
460 52 2 0.000000 1.576 -44.238 -1.731 
461 52 1 0.000000 7.326 -44.238 -1.731 
462 52 1 0.000000 13.076 -44.238 -1.731 
463 52 1 0.000000 18.826 -44.238 -1.731 
464 52 3 0.000000 24.576 -44.238 -1.731 
465 52 1 0.000000 30.326 -44.238 -1.731 
466 52 1 0.000000 36.076 -44.238 -1.731 
467 52 1 0.000000 41.826 -44.238 -1.731 
468 52 2 0.000000 47.576 -44.238 -1.731 
469 53 2 0.000000 -383.107 13.146 30.148 
470 53 1 0.000000 -377.357 13.146 30.148 
471 53 1 0.000000 -371.607 13.146 30.148 
472 53 1 0.000000 -365.857 13.146 30.148 
473 53 3 0.000000 -360.107 13.146 30.148 
474 53 1 0.000000 -354.357 13.146 30.148 
475 53 1 0.000000 -348.607 13.146 30.148 
476 53 1 0.000000 -342.857 13.146 30.148 
477 53 2 0.000000 -337.107 13.146 30.148 
478 54 2 0.000000 299.120 108.785 -105.872 
479 54 1 0.000000 304.870 108.785 -105.872 
480 54 1 0.000000 310.620 108.785 -105.872 
481 54 1 0.000000 316.370 108.785 -105.872 
482 54 3 0.000000 322.120 108.785 -105.872 
483 54 1 0.000000 327.870 108.785 -105.872 
484 54 1 0.000000 333.620 108.785 -105.872 
485 54 1 0.000000 339.370 108.785 -105.872 
486 54 2 0.000000 345.120 108.785 -105.872 
487 55 2 0.000000 -185.453 21.647 -110.123 
488 55 1 0.000000 -179.703 21.647 -110.123 
489 55 1 0.000000 -173.953 21.647 -110.123 
490 55 1 0.000000 -168.203 21.647 -110.123 
491 55 3 0.000000 -162.453 21.647 -110.123 
492 55 1 0.000000 -156.703 21.647 -110.123 
493 55 1 0.000000 -150.953 21.647 -110.123 
494 55 1 0.000000 -145.203 21.647 -110.123 
495 55 2 0.000000 -139.453 21.647 -110.123 
496 56 2 0.000000 -493.624 -31.486 -65.491 
497 56 1 0.000000 -487.874 -31.486 -65.491 
498 56 1 0.000000 -482.124 -31.486 -65.491 
499 56 1 0.000000 -476.374 -31.486 -65.491 
500 56 3 0.000000 -470.624 -31.486 -65.491 
501 56 1 0.000000 -464.874 -31.486 -65.491 
502 56 1 0.000000 -459.124 -31.486 -65.491 
503 56 1 0.000000 -453.374 -31.486 -65.491 
504 56 2 0.000000 -447.624 -31.486 -65.491 
505 57 2 0.000000 260.865 6.770 21.647 
506 57 1 0.000000 266.615 6.770 21.647 
507 57 1 0.000000 272.365 6.770 21.647 
508 57 1 0.000000 278.115 6.770 21.647 
509 57 3 0.000000 283.865 6.770 21.647 
510 57 1 0.000000 289.615 6.770 21.647 
511 57 1 0.000000 295.365 6.770 21.647 
512 57 1 0.000000 301.115 6.770 21.647 
513 57 2 0.000000 306.865 6.770 21.647 
514 58 2 0.000000 -295.969 8.895 85.407 
515 58 1 0.000000 -290.219 8.895 85.407 
516 58 1 0.000000 -284.469 8.895 85.407 
517 58 1 0.000000 -278.719 8.895 85.407 
518 58 3 0.000000 -272.969 8.895 85.407 
519 58 1 0.000000 -267.219 8.895 85.407 
520 58 1 0.000000 -261.469 8.895 85.407 
521 58 1 0.000000 -255.719 8.895 85.407 
522 58 2 0.000000 -249.969 8.895 85.407 
523 59 2 0.000000 -147.197 -59.115 -73.992 
524 59 1 0.000000 -141.447 -59.115 -73.992 
525 59 1 0.000000 -135.697 -59.115 -73.992 
526 59 1 0.000000 -129.947 -59.115 -73.992 
527 59 3 0.000000 -124.197 -59.115 -73.992 
528 59 1 0.000000 -118.447 -59.115 -73.992 
529 59 1 0.000000 -112.697 -59.115 -73.992 
530 59 1 0.000000 -106.947 -59.115 -73.992 
531 59 2 0.000000 -101.197 -59.115 -73.992 
532 60 2 0.000000 180.102 -35.737 -120.749 
533 60 1 0.000000 185.852 -35.737 -120.749 
534 60 1 0.000000 191.602 -35.737 -120.749 
535 60 1 0.000000 197.352 -35.737 -120.749 
536 60 3 0.000000 203.102 -35.737 -120.749 
537 60 1 0.000000 208.852 -35.737 -120.749 
538 60 1 0.000000 214.602 -35.737 -120.749 
539 60 1 0.000000 220.352 -35.737 -120.749 
540 60 2 0.000000 226.102 -35.737 -120.749 
541 61 2 0.000000 -210.956 -39.987 23.772 
542 61 1 0.000000 -205.206 -39.987 23.772 
543 61 1 0.000000 -199.456 -39.987 23.772 
544 61 1 0.000000 -193.706 -39.987 23.772 
545 61 3 0.000000 -187.956 -39.987 23.772 
546 61 1 0.000000 -182.206 -39.987 23.772 
547 61 1 0.000000 -176.456 -39.987 23.772 
548 61 1 0.000000 -170.706 -39.987 23.772 
549 61 2 0.000000 -164.956 -39.987 23.772 
550 62 2 0.000000 71.711 -110.123 17.396 
551 62 1 0.000000 77.461 -110.123 17.396 
552 62 1 0.000000 83.211 -110.123 17.396 
553 62 1 0.000000 88.961 -110.123 17.396 
554 62 3 0.000000 94.711 -110.123 17.396 
555 62 1 0.000000 100.461 -110.123 17.396 
556 62 1 0.000000 106.211 -110.123 17.396 
557 62 1 0.000000 111.961 -110.123 17.396 
558 62 2 0.000000 117.711 -110.123 17.396 
559 63 2 0.000000 -355.478 -114.373 -14.483 
560 63 1 0.000000 -349.728 -114.373 -14.483 
561 63 1 0.000000 -343.978 -114.373 -14.483 
562 63 1 0.000000 -338.228 -114.373 -14.483 
563 63 3 0.000000 -332.478 -114.373 -14.483 
564 63 1 0.000000 -326.728 -114.373 -14.483 
565 63 1 0.000000 -320.978 -114.373 -14.483 
566 63 1 0.000000 -315.228 -114.373 -14.483 
567 63 2 0.000000 -309.478 -114.373 -14.483 
568 64 2 0.000000 -465.995 -61.240 113.036 
569 64 1 0.000000 -460.245 -61.240 113.036 
570 64 1 0.000000 -454.495 -61.240 113.036 
571 64 1 0.000000 -448.745 -61.240 113.036 
572 64 3 0.000000 -442.995 -61.240 113.036 
573 64 1 0.000000 -437.245 -61.240 113.036 
574 64 1 0.000000 -431.495 -61.240 113.036 
575 64 1 0.000000 -425.745 -61.240 113.036 
576 64 2 0.000000 -419.995 -61.240 113.036 
577 65 2 0.000000 -202.455 28.023 -97.371 
578 65 1 0.000000 -196.705 28.023 -97.371 
579 65 1 0.000000 -190.955 28.023 -97.371 
580 65 1 0.000000 -185.205 28.023 -97.371 
581 65 3 0.000000 -179.455 28.023 -97.371 
582 65 1 0.000000 -173.705 28.023 -97.371 
583 65 1 0.000000 -167.955 28.023 -97.371 
584 65 1 0.000000 -162.205 28.023 -97.371 
585 65 2 0.000000 -156.455 28.023 -97.371 
586 66 2 0.000000 -213.082 113.036 40.775 
587 66 1 0.000000 -207.332 113.036 40.775 
588 66 1 0.000000 -201.582 113.036 40.775 
589 66 1 0.000000 -195.832 113.036 40.775 
590 66 3 0.000000 -190.082 113.036 40.775 
591 66 1 0.000000 -184.332 113.036 40.775 
592 66 1 0.000000 -178.582 113.036 40.775 
593 66 1 0.000000 -172.832 113.036 40.775 
594 66 2 0.000000 -167.082 113.036 40.775 
595 67 2 0.000000 -353.353 -86.744 62.028 
596 67 1 0.000000 -347.603 -86.744 62.028 
597 67 1 0.000000 -341.853 -86.744 62.028 
598 67 1 0.000000 -336.103 -86.744 62.028 
599 67 3 0.000000 -330.353 -86.744 62.028 
600 67 1 0.000000 -324.603 -86.744 62.028 
601 67 1 0.000000 -318.853 -86.744 62.028 
602 67 1 0.000000 -313.103 -86.744 62.028 
603 67 2 0.000000 -307.353 -86.744 62.028 
604 68 2 0.000000 158.849 -63.366 -61.240 
605 68 1 0.000000 164.599 -63.366 -61.240 
606 68 1 0.000000 170.349 -63.366 -61.240 
607 68 1 0.000000 176.099 -63.366 -61.240 
608 68 3 0.000000 181.849 -63.366 -61.240 
609 68 1 0.000000 187.599 -63.366 -61.240 
610 68 1 0.000000 193.349 -63.366 -61.240 
611 68 1 0.000000 199.099 -63.366 -61.240 
612 68 2 0.000000 204.849 -63.366 -61.240 
613 69 2 0.000000 -255.588 -10.233 -29.361 
614 69 1 0.000000 -249.838 -10.233 -29.361 
615 69 1 0.000000 -244.088 -10.233 -29.361 
616 69 1 0.000000 -238.338 -10.233 -29.361 
617 69 3 0.000000 -232.588 -10.233 -29.361 
618 69 1 0.000000 -226.838 -10.233 -29.361 
619 69 1 0.000000 -221.088 -10.233 -29.361 
620 69 1 0.000000 -215.338 -10.233 -29.361 
621 69 2 0.000000 -209.588 -10.233 -29.361 
622 70 2 0.000000 486.148 -99.496 -33.611 
623 70 1 0.000000 491.898 -99.496 -33.611 
624 70 1 0.000000 497.648 -99.496 -33.611 
625 70 1 0.000000 -496.602 -99.496 -33.611 
626 70 3 0.000000 -490.852 -99.496 -33.611 
627 70 1 0.000000 -485.102 -99.496 -33.611 
628 70 1 0.000000 -479.352 -99.496 -33.611 
629 70 1 0.000000 -473.602 -99.496 -33.611 
630 70 2 0.000000 -467.852 -99.496 -33.611 
631 71 2 0.000000 403.261 -42.113 -90.995 
632 71 1 0.000000 409.011 -42.113 -90.995 
633 71 1 0.000000 414.761 -42.113 -90.995 
634 71 1 0.000000 420.511 -42.113 -90.995 
635 71 3 0.000000 426.261 -42.113 -90.995 
636 71 1 0.000000 432.011 -42.113 -90.995 
637 71 1 0.000000 437.761 -42.113 -90.995 
638 71 1 0.000000 443.511 -42.113 -90.995 
639 71 2 0.000000 449.261 -42.113 -90.995 
640 72 2 0.000000 284.243 -105.872 -54.864 
641 72 1 0.000000 289.993 -105.872 -54.864 
642 72 1 0.000000 295.743 -105.872 -54.864 
643 72 1 0.000000 301.493 -105.872 -54.864 
644 72 3 0.000000 307.243 -105.872 -54.864 
645 72 1 0.000000 312.993 -105.872 -54.864 
646 72 1 0.000000 318.743 -105.872 -54.864 
647 72 1 0.000000 324.493 -105.872 -54.864 
648 72 2 0.000000 330.243 -105.872 -54.864 
649 73 2 0.000000 -476.621 -46.363 -78.243 
650 73 1 0.000000 -470.871 -46.363 -78.243 
651 73 1 0.000000 -465.121 -46.363 -78.243 
652 73 1 0.000000 -459.371 -46.363 -78.243 
653 73 3 0.000000 -453.621 -46.363 -78.243 
654 73 1 0.000000 -447.871 -46.363 -78.243 
655 73 1 0.000000 -442.121 -46.363 -78.243 
656 73 1 0.000000 -436.371 -46.363 -78.243 
657 73 2 0.000000 -430.621 -46.363 -78.243 
658 74 2 0.000000 348.003 -37.862 -8.107 
659 74 1 0.000000 353.753 -37.862 -8.107 
660 74 1 0.000000 359.503 -37.862 -8.107 
661 74 1 0.000000 365.253 -37.862 -8.107 
662 74 3 0.000000 371.003 -37.862 -8.107 
663 74 1 0.000000 376.753 -37.862 -8.107 
664 74 1 0.000000 382.503 -37.862 -8.107 
665 74 1 0.000000 388.253 -37.862 -8.107 
666 74 2 0.000000 394.003 -37.862 -8.107 
667 75 2 0.000000 -285.343 -103.747 59.903 
668 75 1 0.000000 -279.593 -103.747 59.903 
669 75 1 0.000000 -273.843 -103.747 59.903 
670 75 1 0.000000 -268.093 -103.747 59.903 
671 75 3 0.000000 -262.343 -103.747 59.903 
672 75 1 0.000000 -256.593 -103.747 59.903 
673 75 1 0.000000 -250.843 -103.747 59.903 
674 75 1 0.000000 -245.093 -103.747 59.903 
675 75 2 0.000000 -239.343 -103.747 59.903 
676 76 2 0.000000 -385.233 -80.368 -46.363 
677 76 1 0.000000 -379.483 -80.368 -46.363 
678 76 1 0.000000 -373.733 -80.368 -46.363 
679 76 1 0.000000 -367.983 -80.368 -46.363 
680 76 3 0.000000 -362.233 -80.368 -46.363 
681 76 1 0.000000 -356.483 -80.368 -46.363 
682 76 1 0.000000 -350.733 -80.368 -46.363 
683 76 1 0.000000 -344.983 -80.368 -46.363 
684 76 2 0.000000 -339.233 -80.368 -46.363 
685 77 2 0.000000 -276.841 -73.992 -12.358 
686 77 1 0.000000 -271.091 -73.992 -12.358 
687 77 1 0.000000 -265.341 -73.992 -12.358 
688 77 1 0.000000 -259.591 -73.992 -12.358 
689 77 3 0.000000 -253.841 -73.992 -12.358 
690 77 1 0.000000 -248.091 -73.992 -12.358 
691 77 1 0.000000 -242.341 -73.992 -12.358 
692 77 1 0.000000 -236.591 -73.992 -12.358 
693 77 2 0.000000 -230.841 -73.992 -12.358 
694 78 2 0.000000 211.982 93.908 13.146 
695 78 1 0.000000 217.732 93.908 13.146 
696 78 1 0.000000 223.482 93.908 13.146 
697 78 1 0.000000 229.232 93.908 13.146 
698 78 3 0.000000 234.982 93.908 13.146 
699 78 1 0.000000 240.732 93.908 13.146 
700 78 1 0.000000 246.482 93.908 13.146 